Title: * spicenetlist
Date: Sat Aug 13 08:40:19  2022
Plotname: Transient Analysis
Flags: real
No. Variables: 5
No. Points: 1001
Variables:
	0	time	time
	1	v(vcq2)	voltage
	2	v(vout)	voltage
	3	v(vin)	voltage
	4	i(i(v_v1))	current
Values:
 0	2.000000759861022e-02
	2.594748769112241e+00
	6.001755342926137e+00
	6.000000000000000e+00
	-1.332204068200760e-03

 1	2.000002759971022e-02
	2.599852241751162e+00
	6.001748911841617e+00
	6.000000000000000e+00
	-1.330669884878742e-03

 2	2.000004760081022e-02
	2.604934537142103e+00
	6.001743308010395e+00
	6.000000000000000e+00
	-1.329141350415730e-03

 3	2.000006760191022e-02
	2.609999312038465e+00
	6.001737097588992e+00
	6.000000000000000e+00
	-1.327618302539544e-03

 4	2.000008760301022e-02
	2.615043577880392e+00
	6.001731681537981e+00
	6.000000000000000e+00
	-1.326100749131108e-03

 5	2.000010760411022e-02
	2.620070876712097e+00
	6.001725670960511e+00
	6.000000000000000e+00
	-1.324588532998390e-03

 6	2.000012760521021e-02
	2.625078267339473e+00
	6.001720420742135e+00
	6.000000000000000e+00
	-1.323081674860538e-03

 7	2.000014760631021e-02
	2.630069176370025e+00
	6.001714586326495e+00
	6.000000000000000e+00
	-1.321580023108546e-03

 8	2.000016760741021e-02
	2.635040706616223e+00
	6.001709478666150e+00
	6.000000000000000e+00
	-1.320083610995965e-03

 9	2.000018760851021e-02
	2.639996171097494e+00
	6.001703796248626e+00
	6.000000000000000e+00
	-1.318592292728382e-03

 10	2.000020760961021e-02
	2.644932657369646e+00
	6.001698785586553e+00
	6.000000000000000e+00
	-1.317106140222806e-03

 11	2.000022761071021e-02
	2.649853193802985e+00
	6.001693143426304e+00
	6.000000000000000e+00
	-1.315625081367129e-03

 12	2.000024761181021e-02
	2.654754753628139e+00
	6.001688087963267e+00
	6.000000000000000e+00
	-1.314149232661476e-03

 13	2.000026761291020e-02
	2.659640249716064e+00
	6.001682414611710e+00
	6.000000000000000e+00
	-1.312678497678047e-03

 14	2.000028761401020e-02
	2.664506759639768e+00
	6.001677322372518e+00
	6.000000000000000e+00
	-1.311212976329666e-03

 15	2.000030761511020e-02
	2.669357157286841e+00
	6.001671642277115e+00
	6.000000000000000e+00
	-1.309752563175795e-03

 16	2.000032761621020e-02
	2.674188619270795e+00
	6.001666533651079e+00
	6.000000000000000e+00
	-1.308297354489652e-03

 17	2.000034761731020e-02
	2.679003972491569e+00
	6.001660863354773e+00
	6.000000000000000e+00
	-1.306847237701473e-03

 18	2.000036761841020e-02
	2.683800481343235e+00
	6.001655752085748e+00
	6.000000000000000e+00
	-1.305402307783111e-03

 19	2.000038761951019e-02
	2.688580919258361e+00
	6.001650101677989e+00
	6.000000000000000e+00
	-1.303962447152276e-03

 20	2.000040762061019e-02
	2.693342629145618e+00
	6.001644995500111e+00
	6.000000000000000e+00
	-1.302527751165657e-03

 21	2.000042762171019e-02
	2.698088326159925e+00
	6.001639369234756e+00
	6.000000000000000e+00
	-1.301098099081056e-03

 22	2.000044762281019e-02
	2.702815424101981e+00
	6.001634269883912e+00
	6.000000000000000e+00
	-1.299673588104671e-03

 23	2.000046762391019e-02
	2.707526576505786e+00
	6.001628665491160e+00
	6.000000000000000e+00
	-1.298254096026936e-03

 24	2.000048762501019e-02
	2.712219262041899e+00
	6.001623566978972e+00
	6.000000000000000e+00
	-1.296839723345962e-03

 25	2.000050762611019e-02
	2.716896070907376e+00
	6.001617972363761e+00
	6.000000000000000e+00
	-1.295430348182609e-03

 26	2.000052762721018e-02
	2.721554542688309e+00
	6.001612855251393e+00
	6.000000000000000e+00
	-1.294026076110443e-03

 27	2.000054762831018e-02
	2.726197205159336e+00
	6.001607238990077e+00
	6.000000000000000e+00
	-1.292626787988381e-03

 28	2.000056762941018e-02
	2.730821658682069e+00
	6.001602054948222e+00
	6.000000000000000e+00
	-1.291232597365799e-03

 29	2.000058763051018e-02
	2.735430471338859e+00
	6.001596386445379e+00
	6.000000000000000e+00
	-1.289843340112702e-03

 30	2.000060763161018e-02
	2.740021840271278e+00
	6.001591298808098e+00
	6.000000000000000e+00
	-1.288458890635199e-03

 31	2.000062763271018e-02
	2.744598478770683e+00
	6.001585659028924e+00
	6.000000000000000e+00
	-1.287079166403147e-03

 32	2.000064763381017e-02
	2.749158245484744e+00
	6.001580206398644e+00
	6.000000000000000e+00
	-1.285704318387273e-03

 33	2.000066763491017e-02
	2.753703697188210e+00
	6.001573908283060e+00
	6.000000000000000e+00
	-1.284334250002178e-03

 34	2.000068763601017e-02
	2.758232889929296e+00
	6.001567371475356e+00
	6.000000000000000e+00
	-1.282969135755382e-03

 35	2.000070763711017e-02
	2.762748561467817e+00
	6.001559344989977e+00
	6.000000000000000e+00
	-1.281608956559959e-03

 36	2.000072763821017e-02
	2.767249192432168e+00
	6.001550028766063e+00
	6.000000000000000e+00
	-1.280254007163705e-03

 37	2.000074763931017e-02
	2.771738044278784e+00
	6.001537602542700e+00
	6.000000000000000e+00
	-1.278904456166101e-03

 38	2.000076764041017e-02
	2.776214558159329e+00
	6.001521304548516e+00
	6.000000000000000e+00
	-1.277560894374399e-03

 39	2.000078764151016e-02
	2.780683362243808e+00
	6.001497875694288e+00
	6.000000000000000e+00
	-1.276223952787302e-03

 40	2.000080764261016e-02
	2.785146175399605e+00
	6.001464234845705e+00
	6.000000000000000e+00
	-1.274894946996688e-03

 41	2.000082764371016e-02
	2.789611057551955e+00
	6.001413557598258e+00
	6.000000000000000e+00
	-1.273575641404302e-03

 42	2.000084764481016e-02
	2.794085237789575e+00
	6.001337114110342e+00
	6.000000000000000e+00
	-1.272269127183417e-03

 43	2.000086764591016e-02
	2.798585286131984e+00
	6.001219281173190e+00
	6.000000000000000e+00
	-1.270979954646304e-03

 44	2.000088764701016e-02
	2.803131947656361e+00
	6.001037413456999e+00
	6.000000000000000e+00
	-1.269715604976776e-03

 45	2.000090764811015e-02
	2.807763024983184e+00
	6.000753907170046e+00
	6.000000000000000e+00
	-1.268487594164688e-03

 46	2.000092764921015e-02
	2.812533242086624e+00
	6.000310875349380e+00
	6.000000000000000e+00
	-1.267314586146636e-03

 47	2.000094765031015e-02
	2.817535192549511e+00
	5.999613445077888e+00
	6.000000000000000e+00
	-1.266226378861243e-03

 48	2.000096765141015e-02
	2.822914241224354e+00
	5.998508106888923e+00
	6.000000000000000e+00
	-1.265272373426006e-03

 49	2.000098765251015e-02
	2.828917616981548e+00
	5.996734352463076e+00
	6.000000000000000e+00
	-1.264536210491170e-03

 50	2.000100765361015e-02
	2.835968188793276e+00
	5.993835330521987e+00
	6.000000000000000e+00
	-1.264167332663281e-03

 51	2.000102765471014e-02
	2.844847475766122e+00
	5.988950465472923e+00
	6.000000000000000e+00
	-1.264450983509093e-03

 52	2.000104765581014e-02
	2.857116371325760e+00
	5.980301887717000e+00
	6.000000000000000e+00
	-1.265990060167144e-03

 53	2.000106765691014e-02
	2.876344530856870e+00
	5.963666984919781e+00
	6.000000000000000e+00
	-1.270251187048357e-03

 54	2.000108765801014e-02
	2.912388459783886e+00
	5.926843782433719e+00
	6.000000000000000e+00
	-1.281588531843810e-03

 55	2.000110765911014e-02
	3.000642903278612e+00
	5.823902186967736e+00
	6.000000000000000e+00
	-1.316825938737619e-03

 56	2.000112766021014e-02
	3.273485761403693e+00
	5.474085307227012e+00
	6.000000000000000e+00
	-1.444039064963833e-03

 57	2.000114766131014e-02
	3.829636405335048e+00
	4.735146740670764e+00
	6.000000000000000e+00
	-1.719197243175450e-03

 58	2.000116766241013e-02
	4.357848935307616e+00
	4.039285246066548e+00
	6.000000000000000e+00
	-1.980391706471830e-03

 59	2.000118766351013e-02
	4.509770445361627e+00
	3.867357785163103e+00
	6.000000000000000e+00
	-2.045880935586141e-03

 60	2.000120766461013e-02
	4.538988014333656e+00
	3.869940154152240e+00
	6.000000000000000e+00
	-2.045354326662547e-03

 61	2.000122766571013e-02
	4.564123979043135e+00
	3.880292607547756e+00
	6.000000000000000e+00
	-2.041498631250954e-03

 62	2.000124766681013e-02
	4.585234509936936e+00
	3.894005252656029e+00
	6.000000000000000e+00
	-2.036580419051894e-03

 63	2.000126766791013e-02
	4.603794754664136e+00
	3.909449794535683e+00
	6.000000000000000e+00
	-2.030934216908993e-03

 64	2.000128766901012e-02
	4.620205590301920e+00
	3.924411943616874e+00
	6.000000000000000e+00
	-2.025606955246449e-03

 65	2.000130767011012e-02
	4.635458911573092e+00
	3.938757609743062e+00
	6.000000000000000e+00
	-2.020341423461650e-03

 66	2.000132767121012e-02
	4.649270190938715e+00
	3.951861178606371e+00
	6.000000000000000e+00
	-2.015554335946343e-03

 67	2.000134767231012e-02
	4.662132993837950e+00
	3.964057567940419e+00
	6.000000000000000e+00
	-2.010919929454861e-03

 68	2.000136767341012e-02
	4.673703149126187e+00
	3.975072762832671e+00
	6.000000000000000e+00
	-2.006712799635951e-03

 69	2.000138767451012e-02
	4.684382595535566e+00
	3.985215481306784e+00
	6.000000000000000e+00
	-2.002676438956259e-03

 70	2.000140767561012e-02
	4.693952115047193e+00
	3.994340542846126e+00
	6.000000000000000e+00
	-1.998994873135703e-03

 71	2.000142767671011e-02
	4.702743820836425e+00
	4.002695720477644e+00
	6.000000000000000e+00
	-1.995476246866074e-03

 72	2.000144767781011e-02
	4.710617039783130e+00
	4.010211001168701e+00
	6.000000000000000e+00
	-1.992244030300134e-03

 73	2.000146767891011e-02
	4.717843028136019e+00
	4.017079650384836e+00
	6.000000000000000e+00
	-1.989155047369480e-03

 74	2.000148768001011e-02
	4.724326932460460e+00
	4.023274572999845e+00
	6.000000000000000e+00
	-1.986292945188171e-03

 75	2.000150768111011e-02
	4.730289204149381e+00
	4.028943047519010e+00
	6.000000000000000e+00
	-1.983550920546412e-03

 76	2.000152768221011e-02
	4.735661140258804e+00
	4.034081693277727e+00
	6.000000000000000e+00
	-1.980986361745784e-03

 77	2.000154768331010e-02
	4.740622051958668e+00
	4.038800399523581e+00
	6.000000000000000e+00
	-1.978519515656776e-03

 78	2.000156768441010e-02
	4.745117814030634e+00
	4.043108311573530e+00
	6.000000000000000e+00
	-1.976190372388028e-03

 79	2.000158768551010e-02
	4.749295149193771e+00
	4.047085724343207e+00
	6.000000000000000e+00
	-1.973939208797558e-03

 80	2.000160768661010e-02
	4.753107828259717e+00
	4.050747928351874e+00
	6.000000000000000e+00
	-1.971794424893740e-03

 81	2.000162768771010e-02
	4.756677160303567e+00
	4.054152255050608e+00
	6.000000000000000e+00
	-1.969711075493604e-03

 82	2.000164768881010e-02
	4.759961036439215e+00
	4.057316593863828e+00
	6.000000000000000e+00
	-1.967709795779312e-03

 83	2.000166768991010e-02
	4.763061157266942e+00
	4.060280722776454e+00
	6.000000000000000e+00
	-1.965756513262232e-03

 84	2.000168769101009e-02
	4.765937459108097e+00
	4.063063227514665e+00
	6.000000000000000e+00
	-1.963866631217840e-03

 85	2.000170769211009e-02
	4.768676613011783e+00
	4.065690621567350e+00
	6.000000000000000e+00
	-1.962014061310605e-03

 86	2.000172769321009e-02
	4.771239505413719e+00
	4.068181220731883e+00
	6.000000000000000e+00
	-1.960210661364873e-03

 87	2.000174769431009e-02
	4.773701324518453e+00
	4.070551605822924e+00
	6.000000000000000e+00
	-1.958436199886442e-03

 88	2.000176769541009e-02
	4.776023366515401e+00
	4.072819378554391e+00
	6.000000000000000e+00
	-1.956700118016392e-03

 89	2.000178769651009e-02
	4.778272048380760e+00
	4.074993737715889e+00
	6.000000000000000e+00
	-1.954986479712412e-03

 90	2.000180769761008e-02
	4.780408842328622e+00
	4.077091409353286e+00
	6.000000000000000e+00
	-1.953303068525379e-03

 91	2.000182769871008e-02
	4.782493448051349e+00
	4.079116142146766e+00
	6.000000000000000e+00
	-1.951637100772343e-03

 92	2.000184769981008e-02
	4.784487443740505e+00
	4.081083771045019e+00
	6.000000000000000e+00
	-1.949995214932910e-03

 93	2.000186770091008e-02
	4.786445357453631e+00
	4.082994046494954e+00
	6.000000000000000e+00
	-1.948366944361694e-03

 94	2.000188770201008e-02
	4.788328885700819e+00
	4.084861966658189e+00
	6.000000000000000e+00
	-1.946758129672907e-03

 95	2.000190770311008e-02
	4.790188542904204e+00
	4.086684368571699e+00
	6.000000000000000e+00
	-1.945160011615711e-03

 96	2.000192770421007e-02
	4.791986193387273e+00
	4.088475496015354e+00
	6.000000000000000e+00
	-1.943577868705977e-03

 97	2.000194770531007e-02
	4.793769203110420e+00
	4.090230079697841e+00
	6.000000000000000e+00
	-1.942004204502343e-03

 98	2.000196770641007e-02
	4.795499666322642e+00
	4.091961697597098e+00
	6.000000000000000e+00
	-1.940443895806791e-03

 99	2.000198770751007e-02
	4.797222446033821e+00
	4.093663572613342e+00
	6.000000000000000e+00
	-1.938890384874738e-03

 100	2.000200770861007e-02
	4.798899928488897e+00
	4.095348700907751e+00
	6.000000000000000e+00
	-1.937348256012185e-03

 101	2.000202770971007e-02
	4.800574955261854e+00
	4.097009240310390e+00
	6.000000000000000e+00
	-1.935811653894089e-03

 102	2.000204771081007e-02
	4.802210260616760e+00
	4.098657679904544e+00
	6.000000000000000e+00
	-1.934284944748641e-03

 103	2.000206771191006e-02
	4.803847024216406e+00
	4.100285439315902e+00
	6.000000000000000e+00
	-1.932762803345967e-03

 104	2.000208771301006e-02
	4.805448375958060e+00
	4.101904564644502e+00
	6.000000000000000e+00
	-1.931249428572680e-03

 105	2.000210771411006e-02
	4.807054102556637e+00
	4.103505978204112e+00
	6.000000000000000e+00
	-1.929739899537125e-03

 106	2.000212771521006e-02
	4.808627768372314e+00
	4.105101336866886e+00
	6.000000000000000e+00
	-1.928238282353626e-03

 107	2.000214771631006e-02
	4.810207968996281e+00
	4.106681242858237e+00
	6.000000000000000e+00
	-1.926739968617901e-03

 108	2.000216771741006e-02
	4.811758733822804e+00
	4.108257008240570e+00
	6.000000000000000e+00
	-1.925248915246566e-03

 109	2.000218771851005e-02
	4.813317619431529e+00
	4.109819045312235e+00
	6.000000000000000e+00
	-1.923760759131774e-03

 110	2.000220771961005e-02
	4.814849143535837e+00
	4.111378357709561e+00
	6.000000000000000e+00
	-1.922279364074924e-03

 111	2.000222772071005e-02
	4.816389938997125e+00
	4.112925263192152e+00
	6.000000000000000e+00
	-1.920800563029817e-03

 112	2.000224772181005e-02
	4.817905028891272e+00
	4.114470486590031e+00
	6.000000000000000e+00
	-1.919328137711650e-03

 113	2.000226772291005e-02
	4.819430210395680e+00
	4.116004320852433e+00
	6.000000000000000e+00
	-1.917858080960068e-03

 114	2.000228772401005e-02
	4.820931023826064e+00
	4.117537236088206e+00
	6.000000000000000e+00
	-1.916394099988984e-03

 115	2.000230772511005e-02
	4.822442498494014e+00
	4.119059551215305e+00
	6.000000000000000e+00
	-1.914932320871470e-03

 116	2.000232772621004e-02
	4.823930699583598e+00
	4.120581501190546e+00
	6.000000000000000e+00
	-1.913476381610283e-03

 117	2.000234772731004e-02
	4.825429941372937e+00
	4.122093467712777e+00
	6.000000000000000e+00
	-1.912022521782602e-03

 118	2.000236772841004e-02
	4.826906818131434e+00
	4.123605466543453e+00
	6.000000000000000e+00
	-1.910574313917113e-03

 119	2.000238772951004e-02
	4.828394970777498e+00
	4.125107968648285e+00
	6.000000000000000e+00
	-1.909128096436811e-03

 120	2.000240773061004e-02
	4.829861524163344e+00
	4.126610783670576e+00
	6.000000000000000e+00
	-1.907687379095374e-03

 121	2.000242773171004e-02
	4.831339479214955e+00
	4.128104490713999e+00
	6.000000000000000e+00
	-1.906248588200781e-03

 122	2.000244773281003e-02
	4.832796490715975e+00
	4.129598704096994e+00
	6.000000000000000e+00
	-1.904815172742317e-03

 123	2.000246773391003e-02
	4.834264946782924e+00
	4.131084124331212e+00
	6.000000000000000e+00
	-1.903383638635989e-03

 124	2.000248773501003e-02
	4.835713029760734e+00
	4.132570179363435e+00
	6.000000000000000e+00
	-1.901957375702056e-03

 125	2.000250773611003e-02
	4.837172537509104e+00
	4.134047700254090e+00
	6.000000000000000e+00
	-1.900532963148763e-03

 126	2.000252773721003e-02
	4.838612176259961e+00
	4.135525936111653e+00
	6.000000000000000e+00
	-1.899113732924384e-03

 127	2.000254773831003e-02
	4.840063172675640e+00
	4.136995854629497e+00
	6.000000000000000e+00
	-1.897696332663615e-03

 128	2.000256773941003e-02
	4.841494752204466e+00
	4.138466532501270e+00
	6.000000000000000e+00
	-1.896284037538985e-03

 129	2.000258774051002e-02
	4.842937586722259e+00
	4.139929077874940e+00
	6.000000000000000e+00
	-1.894873559821328e-03

 130	2.000260774161002e-02
	4.844361415433445e+00
	4.141392400548146e+00
	6.000000000000000e+00
	-1.893468118907644e-03

 131	2.000262774271002e-02
	4.845796369865652e+00
	4.142847751318861e+00
	6.000000000000000e+00
	-1.892064488663894e-03

 132	2.000264774381002e-02
	4.847212696950957e+00
	4.144303877921555e+00
	6.000000000000000e+00
	-1.890665833627740e-03

 133	2.000266774491002e-02
	4.848640000764068e+00
	4.145752174770927e+00
	6.000000000000000e+00
	-1.889268986808316e-03

 134	2.000268774601002e-02
	4.850049029513342e+00
	4.147201231827156e+00
	6.000000000000000e+00
	-1.887877058749985e-03

 135	2.000270774711001e-02
	4.851468871526110e+00
	4.148642587186900e+00
	6.000000000000000e+00
	-1.886486939589667e-03

 136	2.000272774821001e-02
	4.852870769510975e+00
	4.150084676875428e+00
	6.000000000000000e+00
	-1.885101686733653e-03

 137	2.000274774931001e-02
	4.854283306882266e+00
	4.151519182132769e+00
	6.000000000000000e+00
	-1.883718245697105e-03

 138	2.000276775041001e-02
	4.855678213854591e+00
	4.152954388541856e+00
	6.000000000000000e+00
	-1.882339621589830e-03

 139	2.000278775151001e-02
	4.857083579004044e+00
	4.154382119437666e+00
	6.000000000000000e+00
	-1.880962813831113e-03

 140	2.000280775261001e-02
	4.858471612936309e+00
	4.155810513201065e+00
	6.000000000000000e+00
	-1.879590776041383e-03

 141	2.000282775371000e-02
	4.859869918901545e+00
	4.157231533885931e+00
	6.000000000000000e+00
	-1.878220560232775e-03

 142	2.000284775481000e-02
	4.861251180682513e+00
	4.158653175678022e+00
	6.000000000000000e+00
	-1.876855069350121e-03

 143	2.000286775591000e-02
	4.862642525256626e+00
	4.160067541737377e+00
	6.000000000000000e+00
	-1.875491406813869e-03

 144	2.000288775701000e-02
	4.864017102331148e+00
	4.161482484886124e+00
	6.000000000000000e+00
	-1.874132425698124e-03

 145	2.000290775811000e-02
	4.865401571263747e+00
	4.162890245589372e+00
	6.000000000000000e+00
	-1.872775279767806e-03

 146	2.000292775921000e-02
	4.866769540448770e+00
	4.164298538014044e+00
	6.000000000000000e+00
	-1.871422773001476e-03

 147	2.000294776031000e-02
	4.868147209978804e+00
	4.165699738033220e+00
	6.000000000000000e+00
	-1.870072108500776e-03

 148	2.000296776140999e-02
	4.869508639677860e+00
	4.167101423707093e+00
	6.000000000000000e+00
	-1.868726041960609e-03

 149	2.000298776250999e-02
	4.870879578451260e+00
	4.168496104337210e+00
	6.000000000000000e+00
	-1.867381824877918e-03

 150	2.000300776360999e-02
	4.872234530372574e+00
	4.169891224362289e+00
	6.000000000000000e+00
	-1.866042165429452e-03

 151	2.000302776470999e-02
	4.873598801013004e+00
	4.171279424495129e+00
	6.000000000000000e+00
	-1.864704362603702e-03

 152	2.000304776580999e-02
	4.874947331542246e+00
	4.172668017923705e+00
	6.000000000000000e+00
	-1.863371077849055e-03

 153	2.000306776690999e-02
	4.876304991830158e+00
	4.174049774715622e+00
	6.000000000000000e+00
	-1.862039656794514e-03

 154	2.000308776800998e-02
	4.877647153081006e+00
	4.175431879129265e+00
	6.000000000000000e+00
	-1.860712714916464e-03

 155	2.000310776910998e-02
	4.878998256918549e+00
	4.176807228528016e+00
	6.000000000000000e+00
	-1.859387643657168e-03

 156	2.000312777020998e-02
	4.880334097587975e+00
	4.178182880488643e+00
	6.000000000000000e+00
	-1.858067013278671e-03

 157	2.000314777130998e-02
	4.881678695750177e+00
	4.179551857609198e+00
	6.000000000000000e+00
	-1.856748260239762e-03

 158	2.000316777240998e-02
	4.883008261786159e+00
	4.180921092980690e+00
	6.000000000000000e+00
	-1.855433910331632e-03

 159	2.000318777350998e-02
	4.884346402531881e+00
	4.182283732394548e+00
	6.000000000000000e+00
	-1.854121444245353e-03

 160	2.000320777460998e-02
	4.885669737677746e+00
	4.183646586590694e+00
	6.000000000000000e+00
	-1.852813344045981e-03

 161	2.000322777570997e-02
	4.887001467220095e+00
	4.185002922520624e+00
	6.000000000000000e+00
	-1.851507133901301e-03

 162	2.000324777680997e-02
	4.888318613436534e+00
	4.186359430672941e+00
	6.000000000000000e+00
	-1.850205252872330e-03

 163	2.000326777790997e-02
	4.889643976334676e+00
	4.187709497148568e+00
	6.000000000000000e+00
	-1.848905267863870e-03

 164	2.000328777900997e-02
	4.890954974159043e+00
	4.189059694248144e+00
	6.000000000000000e+00
	-1.847609575637532e-03

 165	2.000330778010997e-02
	4.892274013636380e+00
	4.190403525221243e+00
	6.000000000000000e+00
	-1.846315785126614e-03

 166	2.000332778120997e-02
	4.893578902446999e+00
	4.191747446196627e+00
	6.000000000000000e+00
	-1.845026251494911e-03

 167	2.000334778230996e-02
	4.894891660649749e+00
	4.193085075626363e+00
	6.000000000000000e+00
	-1.843738624980152e-03

 168	2.000336778340996e-02
	4.896190478907180e+00
	4.194422755425154e+00
	6.000000000000000e+00
	-1.842455219860904e-03

 169	2.000338778450996e-02
	4.897496997097765e+00
	4.195754217322286e+00
	6.000000000000000e+00
	-1.841173726976360e-03

 170	2.000340778560996e-02
	4.898789782543812e+00
	4.197085690973372e+00
	6.000000000000000e+00
	-1.839896420386183e-03

 171	2.000342778670996e-02
	4.900090101289399e+00
	4.198411019461110e+00
	6.000000000000000e+00
	-1.838621030870363e-03

 172	2.000344778780996e-02
	4.901376891080838e+00
	4.199736322091381e+00
	6.000000000000000e+00
	-1.837349792936874e-03

 173	2.000346778890996e-02
	4.902671050392058e+00
	4.201055551434752e+00
	6.000000000000000e+00
	-1.836080476627265e-03

 174	2.000348779000995e-02
	4.903951881251681e+00
	4.202374718319644e+00
	6.000000000000000e+00
	-1.834815277558342e-03

 175	2.000350779110995e-02
	4.905239920717789e+00
	4.203687882966698e+00
	6.000000000000000e+00
	-1.833552004368165e-03

 176	2.000352779220995e-02
	4.906514829027821e+00
	4.205000949538025e+00
	6.000000000000000e+00
	-1.832292814462934e-03

 177	2.000354779330995e-02
	4.907796787890325e+00
	4.206308084112954e+00
	6.000000000000000e+00
	-1.831035554405640e-03

 178	2.000356779440995e-02
	4.909065809818646e+00
	4.207615086011447e+00
	6.000000000000000e+00
	-1.829782344014595e-03

 179	2.000358779550995e-02
	4.910341727079688e+00
	4.208916225354084e+00
	6.000000000000000e+00
	-1.828531067177210e-03

 180	2.000360779660994e-02
	4.911604898626251e+00
	4.210217198413091e+00
	6.000000000000000e+00
	-1.827283806734952e-03

 181	2.000362779770994e-02
	4.912874813140715e+00
	4.211512377611730e+00
	6.000000000000000e+00
	-1.826038483257426e-03

 182	2.000364779880994e-02
	4.914132170227357e+00
	4.212807357893396e+00
	6.000000000000000e+00
	-1.824797143258932e-03

 183	2.000366779990994e-02
	4.915396120742969e+00
	4.214096612274248e+00
	6.000000000000000e+00
	-1.823557743360014e-03

 184	2.000368780100994e-02
	4.916647699289931e+00
	4.215385636100003e+00
	6.000000000000000e+00
	-1.822322294343055e-03

 185	2.000370780210994e-02
	4.917905724517958e+00
	4.216669001254589e+00
	6.000000000000000e+00
	-1.821088788306299e-03

 186	2.000372780320993e-02
	4.919151560478136e+00
	4.217952105200179e+00
	6.000000000000000e+00
	-1.819859200872752e-03

 187	2.000374780430993e-02
	4.920403699171584e+00
	4.219229617026223e+00
	6.000000000000000e+00
	-1.818631559018980e-03

 188	2.000376780540993e-02
	4.921643828599221e+00
	4.220506837957185e+00
	6.000000000000000e+00
	-1.817407803814446e-03

 189	2.000378780650993e-02
	4.922890119587477e+00
	4.221778532661477e+00
	6.000000000000000e+00
	-1.816185996516656e-03

 190	2.000380780760993e-02
	4.924124578686796e+00
	4.223049907753149e+00
	6.000000000000000e+00
	-1.814968044228012e-03

 191	2.000382780870993e-02
	4.925365060922987e+00
	4.224315821871795e+00
	6.000000000000000e+00
	-1.813752041909334e-03

 192	2.000384780980993e-02
	4.926593886101799e+00
	4.225581388638799e+00
	6.000000000000000e+00
	-1.812539863254176e-03

 193	2.000386781090992e-02
	4.927828598725556e+00
	4.226841559076650e+00
	6.000000000000000e+00
	-1.811329636367523e-03

 194	2.000388781200992e-02
	4.929051826634968e+00
	4.228101355391956e+00
	6.000000000000000e+00
	-1.810123202097090e-03

 195	2.000390781310992e-02
	4.930280809021335e+00
	4.229355819451703e+00
	6.000000000000000e+00
	-1.808918721118224e-03

 196	2.000392781420992e-02
	4.931498476618319e+00
	4.230609883592013e+00
	6.000000000000000e+00
	-1.807718001994760e-03

 197	2.000394781530992e-02
	4.932721768404362e+00
	4.231858678984049e+00
	6.000000000000000e+00
	-1.806519237438662e-03

 198	2.000396781640992e-02
	4.933933912987214e+00
	4.233107049650467e+00
	6.000000000000000e+00
	-1.805324204241660e-03

 199	2.000398781750991e-02
	4.935151554160973e+00
	4.234350214567304e+00
	6.000000000000000e+00
	-1.804131126612568e-03

 200	2.000400781860991e-02
	4.936358213418505e+00
	4.235592930922339e+00
	6.000000000000000e+00
	-1.802941750130991e-03

 201	2.000402781970991e-02
	4.937570244330977e+00
	4.236830504038670e+00
	6.000000000000000e+00
	-1.801754329955274e-03

 202	2.000404782080991e-02
	4.938771456408465e+00
	4.238067605761792e+00
	6.000000000000000e+00
	-1.800570580962830e-03

 203	2.000406782190991e-02
	4.939977917845412e+00
	4.239299626296098e+00
	6.000000000000000e+00
	-1.799388788759500e-03

 204	2.000408782300991e-02
	4.941173721391601e+00
	4.240531153622300e+00
	6.000000000000000e+00
	-1.798210638012015e-03

 205	2.000410782410991e-02
	4.942374654641655e+00
	4.241757661396216e+00
	6.000000000000000e+00
	-1.797034444269474e-03

 206	2.000412782520990e-02
	4.943565088850738e+00
	4.242983655151074e+00
	6.000000000000000e+00
	-1.795861862510002e-03

 207	2.000414782630990e-02
	4.944760535748616e+00
	4.244204690625704e+00
	6.000000000000000e+00
	-1.794691237691526e-03

 208	2.000416782740990e-02
	4.945945640449599e+00
	4.245425192309144e+00
	6.000000000000000e+00
	-1.793524195607608e-03

 209	2.000418782850990e-02
	4.947135643445185e+00
	4.246640796648274e+00
	6.000000000000000e+00
	-1.792359110132868e-03

 210	2.000420782960990e-02
	4.948315459148008e+00
	4.247855848476275e+00
	6.000000000000000e+00
	-1.791197578363742e-03

 211	2.000422783070990e-02
	4.949500061367361e+00
	4.249066063602678e+00
	6.000000000000000e+00
	-1.790038002602554e-03

 212	2.000424783180989e-02
	4.950674629344381e+00
	4.250275708585341e+00
	6.000000000000000e+00
	-1.788881951712655e-03

 213	2.000426783290989e-02
	4.951853874679379e+00
	4.251480577266899e+00
	6.000000000000000e+00
	-1.787727855952715e-03

 214	2.000428783400989e-02
	4.953023237035903e+00
	4.252684859276688e+00
	6.000000000000000e+00
	-1.786577256421887e-03

 215	2.000430783510989e-02
	4.954197170229027e+00
	4.253884425208197e+00
	6.000000000000000e+00
	-1.785428610847316e-03

 216	2.000432783620989e-02
	4.955361369986275e+00
	4.255083389061266e+00
	6.000000000000000e+00
	-1.784283433053558e-03

 217	2.000434783730989e-02
	4.956530036687477e+00
	4.256277696919794e+00
	6.000000000000000e+00
	-1.783140207758715e-03

 218	2.000436783840989e-02
	4.957689117894679e+00
	4.257471388487422e+00
	6.000000000000000e+00
	-1.782000421935933e-03

 219	2.000438783950988e-02
	4.958852564796650e+00
	4.258660484066207e+00
	6.000000000000000e+00
	-1.780862586863164e-03

 220	2.000440784060988e-02
	4.960006572597607e+00
	4.259848950341500e+00
	6.000000000000000e+00
	-1.779728163115409e-03

 221	2.000442784170988e-02
	4.961164847522770e+00
	4.261032880636905e+00
	6.000000000000000e+00
	-1.778595688051630e-03

 222	2.000444784280988e-02
	4.962313828297411e+00
	4.262216169877248e+00
	6.000000000000000e+00
	-1.777466596295365e-03

 223	2.000446784390988e-02
	4.963466980322342e+00
	4.263394983213561e+00
	6.000000000000000e+00
	-1.776339450838249e-03

 224	2.000448784500988e-02
	4.964610981806952e+00
	4.264573145062476e+00
	6.000000000000000e+00
	-1.775215660777393e-03

 225	2.000450784610987e-02
	4.965759061379622e+00
	4.265746891211031e+00
	6.000000000000000e+00
	-1.774093814318886e-03

 226	2.000452784720987e-02
	4.966898132784676e+00
	4.266919976818935e+00
	6.000000000000000e+00
	-1.772975295432724e-03

 227	2.000454784830987e-02
	4.968041191898601e+00
	4.268088707174434e+00
	6.000000000000000e+00
	-1.771858717093790e-03

 228	2.000456784940987e-02
	4.969175384080949e+00
	4.269256769374637e+00
	6.000000000000000e+00
	-1.770745438579637e-03

 229	2.000458785050987e-02
	4.970313476399546e+00
	4.270420537084062e+00
	6.000000000000000e+00
	-1.769634097210623e-03

 230	2.000460785160987e-02
	4.971442842009546e+00
	4.271583630545739e+00
	6.000000000000000e+00
	-1.768526027966311e-03

 231	2.000462785270987e-02
	4.972576023065948e+00
	4.272742490713758e+00
	6.000000000000000e+00
	-1.767419892081579e-03

 232	2.000464785380986e-02
	4.973700616759482e+00
	4.273900672161598e+00
	6.000000000000000e+00
	-1.766317000634536e-03

 233	2.000466785490986e-02
	4.974828944153916e+00
	4.275054682056887e+00
	6.000000000000000e+00
	-1.765216038365708e-03

 234	2.000468785600986e-02
	4.975948822774892e+00
	4.276208010465028e+00
	6.000000000000000e+00
	-1.764118292850161e-03

 235	2.000470785710986e-02
	4.977072356379549e+00
	4.277357229738127e+00
	6.000000000000000e+00
	-1.763022471908778e-03

 236	2.000472785820986e-02
	4.978187579206542e+00
	4.278505766593210e+00
	6.000000000000000e+00
	-1.761929839992647e-03

 237	2.000474785930986e-02
	4.979306381405428e+00
	4.279650257535540e+00
	6.000000000000000e+00
	-1.760839127614639e-03

 238	2.000476786040985e-02
	4.980417010384489e+00
	4.280794067093762e+00
	6.000000000000000e+00
	-1.759751576460737e-03

 239	2.000478786150985e-02
	4.981531146352676e+00
	4.281933894946174e+00
	6.000000000000000e+00
	-1.758665939328162e-03

 240	2.000480786260985e-02
	4.982637246387326e+00
	4.283073044560336e+00
	6.000000000000000e+00
	-1.757583435513797e-03

 241	2.000482786370985e-02
	4.983746784360614e+00
	4.284208277827934e+00
	6.000000000000000e+00
	-1.756502839706195e-03

 242	2.000484786480985e-02
	4.984848420363495e+00
	4.285342834864361e+00
	6.000000000000000e+00
	-1.755425350032265e-03

 243	2.000486786590985e-02
	4.985953379789032e+00
	4.286473490733976e+00
	6.000000000000000e+00
	-1.754349774813672e-03

 244	2.000488786700984e-02
	4.987050453340419e+00
	4.287603353991566e+00
	6.000000000000000e+00
	-1.753277309925253e-03

 245	2.000490786810984e-02
	4.988150643751203e+00
	4.288729237657607e+00
	6.000000000000000e+00
	-1.752206791121174e-03

 246	2.000492786920984e-02
	4.989242952762181e+00
	4.289854204133747e+00
	6.000000000000000e+00